<?xml version="1.0" encoding="UTF-8"?>

<!-- generated on 2025-08-12 17:33:46 by Eclipse SUMO sumo Version 1.24.0
<sumoConfiguration xmlns:xsi="http://www.w3.org/2001/XMLSchema-instance" xsi:noNamespaceSchemaLocation="http://sumo.dlr.de/xsd/sumoConfiguration.xsd">

    <input>
        <net-file value="../config/eskisehir_last_with_z.net.xml"/>
        <route-files value="../config/random_routes.rou.xml"/>
        <additional-files value="../config/vehicles.add.xml"/>
    </input>

    <output>
        <tripinfo-output value="../output/tripinfo.xml"/>
    </output>

    <traci_server>
        <remote-port value="63326"/>
    </traci_server>

</sumoConfiguration>
-->

<tripinfos xmlns:xsi="http://www.w3.org/2001/XMLSchema-instance" xsi:noNamespaceSchemaLocation="http://sumo.dlr.de/xsd/tripinfo_file.xsd">
    <tripinfo id="veh1" depart="1.00" departLane="-453772974#0_0" departPos="5.05" departSpeed="0.00" departDelay="0.00" arrival="47.00" arrivalLane="212402400#2_0" arrivalPos="22.48" arrivalSpeed="14.72" duration="46.00" routeLength="465.65" waitingTime="0.00" waitingCount="0" stopTime="0.00" timeLoss="9.75" rerouteNo="0" devices="tripinfo_veh1 battery_veh1" vType="electric19" speedFactor="1.06" vaporized="">
        <battery depleted="0" actualBatteryCapacity="93342.94" totalEnergyConsumed="387.23" totalEnergyRegenerated="225.16"/>
    </tripinfo>
    <tripinfo id="veh13" depart="13.00" departLane="-444291984#4_0" departPos="4.99" departSpeed="0.00" departDelay="0.00" arrival="47.00" arrivalLane="212706333#4_0" arrivalPos="33.77" arrivalSpeed="14.54" duration="34.00" routeLength="337.71" waitingTime="5.00" waitingCount="1" stopTime="0.00" timeLoss="9.85" rerouteNo="0" devices="tripinfo_veh13 battery_veh13" vType="electric18" speedFactor="1.05" vaporized="">
        <battery depleted="0" actualBatteryCapacity="85652.49" totalEnergyConsumed="197.43" totalEnergyRegenerated="110.92"/>
    </tripinfo>
    <tripinfo id="veh8" depart="8.00" departLane="212402305#1_0" departPos="4.68" departSpeed="0.00" departDelay="0.00" arrival="53.00" arrivalLane="212402384#0_0" arrivalPos="52.41" arrivalSpeed="12.31" duration="45.00" routeLength="466.14" waitingTime="0.00" waitingCount="0" stopTime="0.00" timeLoss="4.91" rerouteNo="0" devices="tripinfo_veh8 battery_veh8" vType="electric12" speedFactor="0.89" vaporized="">
        <battery depleted="0" actualBatteryCapacity="61517.99" totalEnergyConsumed="154.19" totalEnergyRegenerated="64.18"/>
    </tripinfo>
    <tripinfo id="veh7" depart="7.00" departLane="-212709054#2_0" departPos="4.99" departSpeed="0.00" departDelay="0.00" arrival="59.00" arrivalLane="460215281#0_0" arrivalPos="32.47" arrivalSpeed="14.53" duration="52.00" routeLength="601.81" waitingTime="0.00" waitingCount="0" stopTime="0.00" timeLoss="8.13" rerouteNo="0" devices="tripinfo_veh7 battery_veh7" vType="electric18" speedFactor="1.05" vaporized="">
        <battery depleted="0" actualBatteryCapacity="85563.77" totalEnergyConsumed="477.76" totalEnergyRegenerated="261.53"/>
    </tripinfo>
    <tripinfo id="veh10" depart="10.00" departLane="-212402301#0_0" departPos="4.73" departSpeed="0.00" departDelay="0.00" arrival="62.00" arrivalLane="-212402327#3_0" arrivalPos="24.56" arrivalSpeed="11.90" duration="52.00" routeLength="521.12" waitingTime="0.00" waitingCount="0" stopTime="0.00" timeLoss="5.90" rerouteNo="0" devices="tripinfo_veh10 battery_veh10" vType="electric13" speedFactor="0.86" vaporized="">
        <battery depleted="0" actualBatteryCapacity="66226.46" totalEnergyConsumed="222.79" totalEnergyRegenerated="124.25"/>
    </tripinfo>
    <tripinfo id="veh12" depart="12.00" departLane="212691495#0_0" departPos="4.15" departSpeed="0.00" departDelay="0.00" arrival="63.00" arrivalLane="1177339960#0_0" arrivalPos="17.35" arrivalSpeed="13.29" duration="51.00" routeLength="538.62" waitingTime="0.00" waitingCount="0" stopTime="0.00" timeLoss="9.84" rerouteNo="0" devices="tripinfo_veh12 battery_veh12" vType="electric2" speedFactor="1.03" vaporized="">
        <battery depleted="0" actualBatteryCapacity="22185.14" totalEnergyConsumed="262.94" totalEnergyRegenerated="147.07"/>
    </tripinfo>
    <tripinfo id="veh49" depart="49.00" departLane="-444291998#2_0" departPos="4.36" departSpeed="0.00" departDelay="0.00" arrival="73.00" arrivalLane="-212706371_0" arrivalPos="51.92" arrivalSpeed="12.18" duration="24.00" routeLength="218.82" waitingTime="0.00" waitingCount="0" stopTime="0.00" timeLoss="3.98" rerouteNo="0" devices="tripinfo_veh49 battery_veh49" vType="electric6" speedFactor="0.88" vaporized="">
        <battery depleted="0" actualBatteryCapacity="42207.45" totalEnergyConsumed="112.85" totalEnergyRegenerated="39.31"/>
    </tripinfo>
    <tripinfo id="veh51" depart="51.00" departLane="-138074615#12_0" departPos="4.31" departSpeed="0.00" departDelay="0.00" arrival="74.00" arrivalLane="-452647824#0_0" arrivalPos="20.27" arrivalSpeed="11.81" duration="23.00" routeLength="207.86" waitingTime="0.00" waitingCount="0" stopTime="0.00" timeLoss="3.71" rerouteNo="0" devices="tripinfo_veh51 battery_veh51" vType="electric5" speedFactor="0.85" vaporized="">
        <battery depleted="0" actualBatteryCapacity="39172.76" totalEnergyConsumed="91.68" totalEnergyRegenerated="69.44"/>
    </tripinfo>
    <tripinfo id="veh50" depart="50.00" departLane="212402293_0" departPos="5.10" departSpeed="0.00" departDelay="0.00" arrival="75.00" arrivalLane="-212402362#2_0" arrivalPos="44.17" arrivalSpeed="11.81" duration="25.00" routeLength="203.84" waitingTime="0.00" waitingCount="0" stopTime="0.00" timeLoss="3.94" rerouteNo="0" devices="tripinfo_veh50 battery_veh50" vType="electric20" speedFactor="0.85" vaporized="">
        <battery depleted="0" actualBatteryCapacity="98680.96" totalEnergyConsumed="195.26" totalEnergyRegenerated="98.22"/>
    </tripinfo>
    <tripinfo id="veh6" depart="6.00" departLane="460215280_0" departPos="4.57" departSpeed="0.00" departDelay="0.00" arrival="80.00" arrivalLane="138074595#3_0" arrivalPos="136.35" arrivalSpeed="11.54" duration="74.00" routeLength="728.53" waitingTime="0.00" waitingCount="0" stopTime="0.00" timeLoss="6.23" rerouteNo="0" devices="tripinfo_veh6 battery_veh6" vType="electric10" speedFactor="0.83" vaporized="">
        <battery depleted="0" actualBatteryCapacity="52389.31" totalEnergyConsumed="242.44" totalEnergyRegenerated="103.75"/>
    </tripinfo>
    <tripinfo id="veh43" depart="43.00" departLane="460215281#0_0" departPos="4.68" departSpeed="0.00" departDelay="0.00" arrival="82.00" arrivalLane="212402356#2_0" arrivalPos="108.45" arrivalSpeed="15.17" duration="39.00" routeLength="441.25" waitingTime="0.00" waitingCount="0" stopTime="0.00" timeLoss="7.65" rerouteNo="0" devices="tripinfo_veh43 battery_veh43" vType="electric12" speedFactor="1.09" vaporized="">
        <battery depleted="0" actualBatteryCapacity="62656.78" totalEnergyConsumed="217.50" totalEnergyRegenerated="99.29"/>
    </tripinfo>
    <tripinfo id="veh28" depart="28.00" departLane="212402307#5_0" departPos="4.57" departSpeed="0.00" departDelay="0.00" arrival="83.00" arrivalLane="212691505#1_0" arrivalPos="41.37" arrivalSpeed="13.18" duration="55.00" routeLength="573.26" waitingTime="0.00" waitingCount="0" stopTime="0.00" timeLoss="7.77" rerouteNo="0" devices="tripinfo_veh28 battery_veh28" vType="electric10" speedFactor="0.95" vaporized="">
        <battery depleted="0" actualBatteryCapacity="57996.42" totalEnergyConsumed="224.58" totalEnergyRegenerated="103.00"/>
    </tripinfo>
    <tripinfo id="veh29" depart="29.00" departLane="-212682841#5_0" departPos="4.10" departSpeed="0.00" departDelay="0.00" arrival="84.00" arrivalLane="-212682793_0" arrivalPos="74.33" arrivalSpeed="15.72" duration="55.00" routeLength="647.65" waitingTime="0.00" waitingCount="0" stopTime="0.00" timeLoss="16.10" rerouteNo="0" devices="tripinfo_veh29 battery_veh29" vType="electric1" speedFactor="1.13" vaporized="">
        <battery depleted="0" actualBatteryCapacity="14047.51" totalEnergyConsumed="343.33" totalEnergyRegenerated="173.84"/>
    </tripinfo>
    <tripinfo id="veh2" depart="2.00" departLane="212691505#4_0" departPos="4.15" departSpeed="0.00" departDelay="0.00" arrival="85.00" arrivalLane="212682844_0" arrivalPos="31.44" arrivalSpeed="13.03" duration="83.00" routeLength="368.38" waitingTime="52.00" waitingCount="1" stopTime="0.00" timeLoss="60.93" rerouteNo="0" devices="tripinfo_veh2 battery_veh2" vType="electric2" speedFactor="0.94" vaporized="">
        <battery depleted="0" actualBatteryCapacity="23486.46" totalEnergyConsumed="201.50" totalEnergyRegenerated="110.97"/>
    </tripinfo>
    <tripinfo id="veh19" depart="19.00" departLane="-212706373#2_0" departPos="5.10" departSpeed="0.00" departDelay="0.00" arrival="88.00" arrivalLane="-212706376#0_0" arrivalPos="30.22" arrivalSpeed="13.00" duration="69.00" routeLength="521.06" waitingTime="15.00" waitingCount="1" stopTime="0.00" timeLoss="24.87" rerouteNo="0" devices="tripinfo_veh19 battery_veh19" vType="electric20" speedFactor="0.94" vaporized="">
        <battery depleted="0" actualBatteryCapacity="98092.00" totalEnergyConsumed="356.29" totalEnergyRegenerated="198.28"/>
    </tripinfo>
    <tripinfo id="veh16" depart="16.00" departLane="-212682839#1_0" departPos="4.57" departSpeed="0.00" departDelay="0.00" arrival="93.00" arrivalLane="212402347#5_0" arrivalPos="23.71" arrivalSpeed="12.87" duration="77.00" routeLength="682.34" waitingTime="6.00" waitingCount="2" stopTime="0.00" timeLoss="25.56" rerouteNo="0" devices="tripinfo_veh16 battery_veh16" vType="electric10" speedFactor="0.93" vaporized="">
        <battery depleted="0" actualBatteryCapacity="56510.58" totalEnergyConsumed="452.41" totalEnergyRegenerated="265.99"/>
    </tripinfo>
    <tripinfo id="veh62" depart="62.00" departLane="137614083#2_0" departPos="4.47" departSpeed="0.00" departDelay="0.00" arrival="99.00" arrivalLane="212706365#1_0" arrivalPos="30.57" arrivalSpeed="15.55" duration="37.00" routeLength="423.79" waitingTime="0.00" waitingCount="0" stopTime="0.00" timeLoss="6.85" rerouteNo="0" devices="tripinfo_veh62 battery_veh62" vType="electric8" speedFactor="1.12" vaporized="">
        <battery depleted="0" actualBatteryCapacity="41917.20" totalEnergyConsumed="192.65" totalEnergyRegenerated="91.86"/>
    </tripinfo>
    <tripinfo id="veh17" depart="17.00" departLane="444292029#1_0" departPos="4.68" departSpeed="0.00" departDelay="0.00" arrival="102.00" arrivalLane="-212682823#0_0" arrivalPos="63.68" arrivalSpeed="12.20" duration="85.00" routeLength="904.21" waitingTime="0.00" waitingCount="0" stopTime="0.00" timeLoss="11.56" rerouteNo="0" devices="tripinfo_veh17 battery_veh17" vType="electric12" speedFactor="0.88" vaporized="">
        <battery depleted="0" actualBatteryCapacity="64890.34" totalEnergyConsumed="420.07" totalEnergyRegenerated="242.41"/>
    </tripinfo>
    <tripinfo id="veh41" depart="41.00" departLane="212402339#0_0" departPos="4.52" departSpeed="0.00" departDelay="0.00" arrival="105.00" arrivalLane="212402292#5_0" arrivalPos="12.53" arrivalSpeed="11.65" duration="64.00" routeLength="671.09" waitingTime="0.00" waitingCount="0" stopTime="0.00" timeLoss="12.16" rerouteNo="0" devices="tripinfo_veh41 battery_veh41" vType="electric9" speedFactor="1.03" vaporized="">
        <battery depleted="0" actualBatteryCapacity="46102.55" totalEnergyConsumed="412.14" totalEnergyRegenerated="211.69"/>
    </tripinfo>
    <tripinfo id="veh55" depart="55.00" departLane="1181466352#2_0" departPos="4.89" departSpeed="0.00" departDelay="0.00" arrival="107.00" arrivalLane="-212682831#3_0" arrivalPos="41.31" arrivalSpeed="13.93" duration="52.00" routeLength="593.18" waitingTime="0.00" waitingCount="0" stopTime="0.00" timeLoss="6.02" rerouteNo="0" devices="tripinfo_veh55 battery_veh55" vType="electric16" speedFactor="1.00" vaporized="">
        <battery depleted="0" actualBatteryCapacity="83424.17" totalEnergyConsumed="283.39" totalEnergyRegenerated="134.55"/>
    </tripinfo>
    <tripinfo id="veh4" depart="4.00" departLane="212701270#0_0" departPos="4.89" departSpeed="0.00" departDelay="0.00" arrival="109.00" arrivalLane="-212402396#6_0" arrivalPos="32.36" arrivalSpeed="14.99" duration="105.00" routeLength="846.35" waitingTime="30.00" waitingCount="3" stopTime="0.00" timeLoss="47.92" rerouteNo="0" devices="tripinfo_veh4 battery_veh4" vType="electric16" speedFactor="1.08" vaporized="">
        <battery depleted="0" actualBatteryCapacity="77787.24" totalEnergyConsumed="681.63" totalEnergyRegenerated="397.87"/>
    </tripinfo>
    <tripinfo id="veh77" depart="77.00" departLane="-453772983#0_0" departPos="4.42" departSpeed="0.00" departDelay="0.00" arrival="114.00" arrivalLane="-212402384#0_0" arrivalPos="51.61" arrivalSpeed="14.34" duration="37.00" routeLength="318.80" waitingTime="5.00" waitingCount="1" stopTime="0.00" timeLoss="13.15" rerouteNo="0" devices="tripinfo_veh77 battery_veh77" vType="electric7" speedFactor="1.03" vaporized="">
        <battery depleted="0" actualBatteryCapacity="40509.34" totalEnergyConsumed="179.91" totalEnergyRegenerated="83.25"/>
    </tripinfo>
    <tripinfo id="veh52" depart="52.00" departLane="212706376#0_0" departPos="4.36" departSpeed="0.00" departDelay="0.00" arrival="115.00" arrivalLane="138074610#6_0" arrivalPos="43.94" arrivalSpeed="15.83" duration="63.00" routeLength="520.34" waitingTime="12.00" waitingCount="1" stopTime="0.00" timeLoss="28.32" rerouteNo="0" devices="tripinfo_veh52 battery_veh52" vType="electric6" speedFactor="1.17" vaporized="">
        <battery depleted="0" actualBatteryCapacity="40906.24" totalEnergyConsumed="356.09" totalEnergyRegenerated="190.33"/>
    </tripinfo>
    <tripinfo id="veh40" depart="40.00" departLane="212402322#1_0" departPos="4.78" departSpeed="0.00" departDelay="0.00" arrival="116.00" arrivalLane="212402308#2_0" arrivalPos="162.55" arrivalSpeed="12.51" duration="76.00" routeLength="444.84" waitingTime="28.00" waitingCount="2" stopTime="0.00" timeLoss="37.40" rerouteNo="0" devices="tripinfo_veh40 battery_veh40" vType="electric14" speedFactor="0.90" vaporized="">
        <battery depleted="0" actualBatteryCapacity="65950.43" totalEnergyConsumed="219.51" totalEnergyRegenerated="101.94"/>
    </tripinfo>
    <tripinfo id="veh59" depart="59.00" departLane="444292008#3_0" departPos="4.78" departSpeed="0.00" departDelay="0.00" arrival="117.00" arrivalLane="444291998#0_0" arrivalPos="22.65" arrivalSpeed="13.77" duration="58.00" routeLength="556.81" waitingTime="0.00" waitingCount="0" stopTime="0.00" timeLoss="15.85" rerouteNo="0" devices="tripinfo_veh59 battery_veh59" vType="electric14" speedFactor="1.02" vaporized="">
        <battery depleted="0" actualBatteryCapacity="70387.98" totalEnergyConsumed="450.93" totalEnergyRegenerated="270.91"/>
    </tripinfo>
    <tripinfo id="veh20" depart="20.00" departLane="-212691502#1_0" departPos="4.15" departSpeed="0.00" departDelay="0.00" arrival="118.00" arrivalLane="444292029#1_0" arrivalPos="38.60" arrivalSpeed="16.09" duration="98.00" routeLength="992.35" waitingTime="6.00" waitingCount="2" stopTime="0.00" timeLoss="32.53" rerouteNo="0" devices="tripinfo_veh20 battery_veh20" vType="electric2" speedFactor="1.16" vaporized="">
        <battery depleted="0" actualBatteryCapacity="23626.42" totalEnergyConsumed="462.19" totalEnergyRegenerated="294.61"/>
    </tripinfo>
    <tripinfo id="veh35" depart="35.00" departLane="-212682821#0_0" departPos="5.05" departSpeed="0.00" departDelay="0.00" arrival="120.00" arrivalLane="443957054#1_0" arrivalPos="56.40" arrivalSpeed="13.82" duration="85.00" routeLength="1264.20" waitingTime="0.00" waitingCount="0" stopTime="0.00" timeLoss="11.30" rerouteNo="0" devices="tripinfo_veh35 battery_veh35" vType="electric19" speedFactor="0.99" vaporized="">
        <battery depleted="0" actualBatteryCapacity="88303.28" totalEnergyConsumed="1037.40" totalEnergyRegenerated="659.67"/>
    </tripinfo>
    <tripinfo id="veh14" depart="14.00" departLane="212402403#7_0" departPos="4.26" departSpeed="0.00" departDelay="0.00" arrival="121.00" arrivalLane="-212706340_0" arrivalPos="81.27" arrivalSpeed="15.60" duration="107.00" routeLength="1182.45" waitingTime="0.00" waitingCount="0" stopTime="0.00" timeLoss="24.85" rerouteNo="0" devices="tripinfo_veh14 battery_veh14" vType="electric4" speedFactor="1.12" vaporized="">
        <battery depleted="0" actualBatteryCapacity="30418.90" totalEnergyConsumed="568.11" totalEnergyRegenerated="313.01"/>
    </tripinfo>
    <tripinfo id="veh74" depart="74.00" departLane="-212691495#5_0" departPos="4.42" departSpeed="0.00" departDelay="0.00" arrival="121.00" arrivalLane="-212682828#2_0" arrivalPos="89.65" arrivalSpeed="14.66" duration="47.00" routeLength="531.17" waitingTime="0.00" waitingCount="0" stopTime="0.00" timeLoss="8.40" rerouteNo="0" devices="tripinfo_veh74 battery_veh74" vType="electric7" speedFactor="1.06" vaporized="">
        <battery depleted="0" actualBatteryCapacity="45333.02" totalEnergyConsumed="308.75" totalEnergyRegenerated="117.77"/>
    </tripinfo>
    <tripinfo id="veh99" depart="99.00" departLane="212402293_0" departPos="4.57" departSpeed="0.00" departDelay="0.00" arrival="123.00" arrivalLane="-212402403#3_0" arrivalPos="19.89" arrivalSpeed="15.58" duration="24.00" routeLength="304.44" waitingTime="0.00" waitingCount="0" stopTime="0.00" timeLoss="3.74" rerouteNo="0" devices="tripinfo_veh99 battery_veh99" vType="electric10" speedFactor="1.12" vaporized="">
        <battery depleted="0" actualBatteryCapacity="53203.54" totalEnergyConsumed="145.49" totalEnergyRegenerated="42.02"/>
    </tripinfo>
    <tripinfo id="veh79" depart="79.00" departLane="-444291994#2_0" departPos="5.05" departSpeed="0.00" departDelay="0.00" arrival="124.00" arrivalLane="-212682838#0_0" arrivalPos="61.38" arrivalSpeed="13.99" duration="45.00" routeLength="538.07" waitingTime="0.00" waitingCount="0" stopTime="0.00" timeLoss="4.35" rerouteNo="0" devices="tripinfo_veh79 battery_veh79" vType="electric19" speedFactor="1.01" vaporized="">
        <battery depleted="0" actualBatteryCapacity="92710.88" totalEnergyConsumed="257.73" totalEnergyRegenerated="115.61"/>
    </tripinfo>
    <tripinfo id="veh31" depart="31.00" departLane="-444292011#8_0" departPos="5.10" departSpeed="0.00" departDelay="0.00" arrival="125.00" arrivalLane="-212701295#1_0" arrivalPos="14.69" arrivalSpeed="16.37" duration="94.00" routeLength="1412.82" waitingTime="1.00" waitingCount="1" stopTime="0.00" timeLoss="17.89" rerouteNo="0" devices="tripinfo_veh31 battery_veh31" vType="electric20" speedFactor="1.18" vaporized="">
        <battery depleted="0" actualBatteryCapacity="96583.69" totalEnergyConsumed="1085.45" totalEnergyRegenerated="664.14"/>
    </tripinfo>
    <tripinfo id="veh69" depart="69.00" departLane="1181466356_0" departPos="4.52" departSpeed="0.00" departDelay="0.00" arrival="128.00" arrivalLane="-212402402#0_0" arrivalPos="14.86" arrivalSpeed="13.04" duration="59.00" routeLength="696.22" waitingTime="0.00" waitingCount="0" stopTime="0.00" timeLoss="8.63" rerouteNo="0" devices="tripinfo_veh69 battery_veh69" vType="electric9" speedFactor="1.04" vaporized="">
        <battery depleted="0" actualBatteryCapacity="47156.12" totalEnergyConsumed="394.61" totalEnergyRegenerated="140.73"/>
    </tripinfo>
    <tripinfo id="veh9" depart="9.00" departLane="452398500#2_0" departPos="4.73" departSpeed="0.00" departDelay="0.00" arrival="129.00" arrivalLane="446514658#2_0" arrivalPos="34.23" arrivalSpeed="13.03" duration="120.00" routeLength="1398.61" waitingTime="3.00" waitingCount="1" stopTime="0.00" timeLoss="24.11" rerouteNo="0" devices="tripinfo_veh9 battery_veh9" vType="electric13" speedFactor="0.94" vaporized="">
        <battery depleted="0" actualBatteryCapacity="62962.72" totalEnergyConsumed="841.79" totalEnergyRegenerated="475.50"/>
    </tripinfo>
    <tripinfo id="veh44" depart="44.00" departLane="-446514658#0_0" departPos="4.21" departSpeed="0.00" departDelay="0.00" arrival="129.00" arrivalLane="-212402322#6_0" arrivalPos="83.99" arrivalSpeed="14.42" duration="85.00" routeLength="666.93" waitingTime="21.00" waitingCount="1" stopTime="0.00" timeLoss="38.66" rerouteNo="0" devices="tripinfo_veh44 battery_veh44" vType="electric3" speedFactor="1.04" vaporized="">
        <battery depleted="0" actualBatteryCapacity="28708.42" totalEnergyConsumed="360.80" totalEnergyRegenerated="226.22"/>
    </tripinfo>
    <tripinfo id="veh11" depart="11.00" departLane="-444291994#1_0" departPos="4.99" departSpeed="0.00" departDelay="0.00" arrival="130.00" arrivalLane="-444292033#1_0" arrivalPos="41.92" arrivalSpeed="15.15" duration="119.00" routeLength="1343.19" waitingTime="1.00" waitingCount="1" stopTime="0.00" timeLoss="23.34" rerouteNo="0" devices="tripinfo_veh11 battery_veh11" vType="electric18" speedFactor="1.09" vaporized="">
        <battery depleted="0" actualBatteryCapacity="81722.73" totalEnergyConsumed="880.90" totalEnergyRegenerated="521.63"/>
    </tripinfo>
    <tripinfo id="veh100" depart="100.00" departLane="-212701280_0" departPos="4.10" departSpeed="0.00" departDelay="0.00" arrival="130.00" arrivalLane="-212701278_0" arrivalPos="52.37" arrivalSpeed="15.24" duration="30.00" routeLength="325.92" waitingTime="0.00" waitingCount="0" stopTime="0.00" timeLoss="6.85" rerouteNo="0" devices="tripinfo_veh100 battery_veh100" vType="electric1" speedFactor="1.10" vaporized="">
        <battery depleted="0" actualBatteryCapacity="16592.63" totalEnergyConsumed="142.97" totalEnergyRegenerated="51.61"/>
    </tripinfo>
    <tripinfo id="veh25" depart="25.00" departLane="-212701276_0" departPos="4.68" departSpeed="0.00" departDelay="0.00" arrival="131.00" arrivalLane="-212402380#0_0" arrivalPos="78.25" arrivalSpeed="11.47" duration="106.00" routeLength="755.13" waitingTime="22.00" waitingCount="1" stopTime="0.00" timeLoss="33.17" rerouteNo="0" devices="tripinfo_veh25 battery_veh25" vType="electric12" speedFactor="0.83" vaporized="">
        <battery depleted="0" actualBatteryCapacity="63599.58" totalEnergyConsumed="355.50" totalEnergyRegenerated="236.08"/>
    </tripinfo>
    <tripinfo id="veh30" depart="30.00" departLane="212691509#0_0" departPos="4.36" departSpeed="0.00" departDelay="0.00" arrival="133.00" arrivalLane="212682814#1_0" arrivalPos="19.18" arrivalSpeed="11.81" duration="103.00" routeLength="1093.86" waitingTime="0.00" waitingCount="0" stopTime="0.00" timeLoss="23.56" rerouteNo="0" devices="tripinfo_veh30 battery_veh30" vType="electric6" speedFactor="0.93" vaporized="">
        <battery depleted="0" actualBatteryCapacity="43683.51" totalEnergyConsumed="556.02" totalEnergyRegenerated="324.52"/>
    </tripinfo>
    <tripinfo id="veh34" depart="34.00" departLane="-212706370#2_0" departPos="4.47" departSpeed="0.00" departDelay="0.00" arrival="134.00" arrivalLane="1177345932_0" arrivalPos="84.25" arrivalSpeed="16.28" duration="100.00" routeLength="1265.90" waitingTime="9.00" waitingCount="1" stopTime="0.00" timeLoss="29.00" rerouteNo="0" devices="tripinfo_veh34 battery_veh34" vType="electric8" speedFactor="1.17" vaporized="">
        <battery depleted="0" actualBatteryCapacity="47391.56" totalEnergyConsumed="691.18" totalEnergyRegenerated="397.74"/>
    </tripinfo>
    <tripinfo id="veh27" depart="27.00" departLane="212682824#2_0" departPos="4.31" departSpeed="0.00" departDelay="0.00" arrival="135.00" arrivalLane="452647828#1_0" arrivalPos="35.65" arrivalSpeed="12.74" duration="108.00" routeLength="896.55" waitingTime="11.00" waitingCount="1" stopTime="0.00" timeLoss="34.14" rerouteNo="0" devices="tripinfo_veh27 battery_veh27" vType="electric5" speedFactor="0.92" vaporized="">
        <battery depleted="0" actualBatteryCapacity="36360.37" totalEnergyConsumed="445.15" totalEnergyRegenerated="197.52"/>
    </tripinfo>
    <tripinfo id="veh80" depart="80.00" departLane="-212682830#1_0" departPos="4.42" departSpeed="0.00" departDelay="0.00" arrival="135.00" arrivalLane="-446514662#1_0" arrivalPos="25.94" arrivalSpeed="15.10" duration="55.00" routeLength="662.76" waitingTime="0.00" waitingCount="0" stopTime="0.00" timeLoss="13.93" rerouteNo="0" devices="tripinfo_veh80 battery_veh80" vType="electric7" speedFactor="1.09" vaporized="">
        <battery depleted="0" actualBatteryCapacity="41457.97" totalEnergyConsumed="396.52" totalEnergyRegenerated="193.49"/>
    </tripinfo>
    <tripinfo id="veh24" depart="24.00" departLane="212682782#1_0" departPos="4.99" departSpeed="0.00" departDelay="0.00" arrival="137.00" arrivalLane="-212682838#3_0" arrivalPos="22.05" arrivalSpeed="12.36" duration="113.00" routeLength="891.78" waitingTime="29.00" waitingCount="1" stopTime="0.00" timeLoss="39.40" rerouteNo="0" devices="tripinfo_veh24 battery_veh24" vType="electric18" speedFactor="0.89" vaporized="">
        <battery depleted="0" actualBatteryCapacity="91546.75" totalEnergyConsumed="437.21" totalEnergyRegenerated="252.95"/>
    </tripinfo>
    <tripinfo id="veh57" depart="57.00" departLane="-444291998#2_0" departPos="4.68" departSpeed="0.00" departDelay="0.00" arrival="138.00" arrivalLane="-212402395#0_0" arrivalPos="21.21" arrivalSpeed="12.49" duration="81.00" routeLength="766.68" waitingTime="0.00" waitingCount="0" stopTime="0.00" timeLoss="16.58" rerouteNo="0" devices="tripinfo_veh57 battery_veh57" vType="electric12" speedFactor="0.90" vaporized="">
        <battery depleted="0" actualBatteryCapacity="64394.01" totalEnergyConsumed="510.21" totalEnergyRegenerated="377.21"/>
    </tripinfo>
    <tripinfo id="veh76" depart="76.00" departLane="212402358#1_0" departPos="4.57" departSpeed="0.00" departDelay="0.00" arrival="140.00" arrivalLane="-212691470#1_0" arrivalPos="14.76" arrivalSpeed="10.01" duration="64.00" routeLength="605.38" waitingTime="0.00" waitingCount="0" stopTime="0.00" timeLoss="13.42" rerouteNo="0" devices="tripinfo_veh76 battery_veh76" vType="electric10" speedFactor="0.98" vaporized="">
        <battery depleted="0" actualBatteryCapacity="56894.43" totalEnergyConsumed="386.25" totalEnergyRegenerated="221.68"/>
    </tripinfo>
    <tripinfo id="veh48" depart="48.00" departLane="212402291#1_0" departPos="5.05" departSpeed="0.00" departDelay="0.00" arrival="141.00" arrivalLane="-452647828#0_0" arrivalPos="48.18" arrivalSpeed="12.51" duration="93.00" routeLength="873.87" waitingTime="8.00" waitingCount="1" stopTime="0.00" timeLoss="19.14" rerouteNo="0" devices="tripinfo_veh48 battery_veh48" vType="electric19" speedFactor="0.90" vaporized="">
        <battery depleted="0" actualBatteryCapacity="88400.22" totalEnergyConsumed="516.65" totalEnergyRegenerated="331.86"/>
    </tripinfo>
    <tripinfo id="veh101" depart="101.00" departLane="444292008#4_0" departPos="4.68" departSpeed="0.00" departDelay="0.00" arrival="142.00" arrivalLane="212706340_0" arrivalPos="81.27" arrivalSpeed="14.79" duration="41.00" routeLength="446.34" waitingTime="0.00" waitingCount="0" stopTime="0.00" timeLoss="7.07" rerouteNo="0" devices="tripinfo_veh101 battery_veh101" vType="electric12" speedFactor="1.06" vaporized="">
        <battery depleted="0" actualBatteryCapacity="60848.56" totalEnergyConsumed="260.18" totalEnergyRegenerated="101.74"/>
    </tripinfo>
    <tripinfo id="veh111" depart="111.00" departLane="212691471#1_0" departPos="4.73" departSpeed="0.00" departDelay="0.00" arrival="145.00" arrivalLane="1178560322#1_0" arrivalPos="13.90" arrivalSpeed="12.89" duration="34.00" routeLength="338.66" waitingTime="0.00" waitingCount="0" stopTime="0.00" timeLoss="6.59" rerouteNo="0" devices="tripinfo_veh111 battery_veh111" vType="electric13" speedFactor="0.93" vaporized="">
        <battery depleted="0" actualBatteryCapacity="65833.82" totalEnergyConsumed="221.67" totalEnergyRegenerated="114.49"/>
    </tripinfo>
    <tripinfo id="veh70" depart="70.00" departLane="444291984#4_0" departPos="4.63" departSpeed="0.00" departDelay="0.00" arrival="148.00" arrivalLane="1181466356_0" arrivalPos="45.29" arrivalSpeed="14.20" duration="78.00" routeLength="537.15" waitingTime="31.00" waitingCount="1" stopTime="0.00" timeLoss="43.98" rerouteNo="0" devices="tripinfo_veh70 battery_veh70" vType="electric11" speedFactor="1.02" vaporized="">
        <battery depleted="0" actualBatteryCapacity="57195.20" totalEnergyConsumed="454.07" totalEnergyRegenerated="256.27"/>
    </tripinfo>
    <tripinfo id="veh45" depart="45.00" departLane="212709088#2_0" departPos="4.57" departSpeed="0.00" departDelay="0.00" arrival="149.00" arrivalLane="-1177339959_0" arrivalPos="98.48" arrivalSpeed="14.49" duration="104.00" routeLength="1459.87" waitingTime="1.00" waitingCount="1" stopTime="0.00" timeLoss="20.12" rerouteNo="0" devices="tripinfo_veh45 battery_veh45" vType="electric10" speedFactor="1.04" vaporized="">
        <battery depleted="0" actualBatteryCapacity="52681.38" totalEnergyConsumed="946.40" totalEnergyRegenerated="605.77"/>
    </tripinfo>
    <tripinfo id="veh47" depart="47.00" departLane="-446514662#9_0" departPos="4.89" departSpeed="0.00" departDelay="0.00" arrival="149.00" arrivalLane="-212682823#1_0" arrivalPos="45.18" arrivalSpeed="13.85" duration="102.00" routeLength="1187.33" waitingTime="1.00" waitingCount="1" stopTime="0.00" timeLoss="23.76" rerouteNo="0" devices="tripinfo_veh47 battery_veh47" vType="electric16" speedFactor="1.00" vaporized="">
        <battery depleted="0" actualBatteryCapacity="82731.58" totalEnergyConsumed="785.68" totalEnergyRegenerated="489.27"/>
    </tripinfo>
    <tripinfo id="veh21" depart="21.00" departLane="-212402380#3_0" departPos="4.47" departSpeed="0.00" departDelay="0.00" arrival="151.00" arrivalLane="275157761#0_0" arrivalPos="53.67" arrivalSpeed="14.14" duration="130.00" routeLength="1177.26" waitingTime="17.00" waitingCount="2" stopTime="0.00" timeLoss="42.36" rerouteNo="0" devices="tripinfo_veh21 battery_veh21" vType="electric8" speedFactor="1.02" vaporized="">
        <battery depleted="0" actualBatteryCapacity="50477.26" totalEnergyConsumed="635.58" totalEnergyRegenerated="354.84"/>
    </tripinfo>