<?xml version="1.0" encoding="UTF-8"?>

<!-- generated on 2025-08-13 20:25:44 by Eclipse SUMO sumo Version 1.24.0
<sumoConfiguration xmlns:xsi="http://www.w3.org/2001/XMLSchema-instance" xsi:noNamespaceSchemaLocation="http://sumo.dlr.de/xsd/sumoConfiguration.xsd">

    <input>
        <net-file value="config/eskisehir_last_with_z.net.xml"/>
        <route-files value="config/random_routes.rou.xml"/>
        <additional-files value="config/vehicles.add.xml"/>
    </input>

    <output>
        <tripinfo-output value="output/tripinfo.xml"/>
    </output>

    <traci_server>
        <remote-port value="62882"/>
    </traci_server>

</sumoConfiguration>
-->

<tripinfos xmlns:xsi="http://www.w3.org/2001/XMLSchema-instance" xsi:noNamespaceSchemaLocation="http://sumo.dlr.de/xsd/tripinfo_file.xsd">
    <tripinfo id="veh62" depart="62.00" departLane="-659380865#1_0" departPos="4.47" departSpeed="0.00" departDelay="0.00" arrival="888.00" arrivalLane="212691499#2_0" arrivalPos="31.01" arrivalSpeed="15.55" duration="826.00" routeLength="7695.79" waitingTime="143.00" waitingCount="11" stopTime="0.00" timeLoss="324.37" rerouteNo="0" devices="tripinfo_veh62 battery_veh62" vType="electric8" speedFactor="1.12" vaporized="">
        <battery depleted="0" actualBatteryCapacity="47773.13" totalEnergyConsumed="4704.06" totalEnergyRegenerated="3119.19"/>
    </tripinfo>
    <tripinfo id="veh71" depart="71.00" departLane="-275157761#4_0" departPos="5.05" departSpeed="0.00" departDelay="0.00" arrival="945.00" arrivalLane="-E17_0" arrivalPos="31.93" arrivalSpeed="14.21" duration="874.00" routeLength="8800.00" waitingTime="92.00" waitingCount="13" stopTime="0.00" timeLoss="267.59" rerouteNo="0" devices="tripinfo_veh71 battery_veh71" vType="electric19" speedFactor="1.02" vaporized="">
        <battery depleted="0" actualBatteryCapacity="93453.68" totalEnergyConsumed="6440.86" totalEnergyRegenerated="4419.54"/>
    </tripinfo>
    <tripinfo id="veh34" depart="34.00" departLane="212709045#1_0" departPos="4.89" departSpeed="0.00" departDelay="0.00" arrival="992.00" arrivalLane="275157752#9_0" arrivalPos="102.26" arrivalSpeed="29.67" duration="958.00" routeLength="9272.43" waitingTime="195.00" waitingCount="16" stopTime="0.00" timeLoss="401.74" rerouteNo="0" devices="tripinfo_veh34 battery_veh34" vType="electric16" speedFactor="1.17" vaporized="">
        <battery depleted="0" actualBatteryCapacity="75318.13" totalEnergyConsumed="7381.28" totalEnergyRegenerated="4897.42"/>
    </tripinfo>
    <tripinfo id="veh218" depart="218.00" departLane="-212682834#3_0" departPos="4.21" departSpeed="0.00" departDelay="0.00" arrival="992.00" arrivalLane="-212402364_0" arrivalPos="115.60" arrivalSpeed="14.87" duration="774.00" routeLength="7597.05" waitingTime="82.00" waitingCount="10" stopTime="0.00" timeLoss="260.81" rerouteNo="0" devices="tripinfo_veh218 battery_veh218" vType="electric3" speedFactor="1.07" vaporized="">
        <battery depleted="0" actualBatteryCapacity="23929.83" totalEnergyConsumed="3445.63" totalEnergyRegenerated="1978.47"/>
    </tripinfo>
    <tripinfo id="veh37" depart="37.00" departLane="-212706367#1_0" departPos="4.78" departSpeed="0.00" departDelay="0.00" arrival="997.00" arrivalLane="-212701274#1_0" arrivalPos="13.18" arrivalSpeed="10.61" duration="960.00" routeLength="8588.58" waitingTime="170.00" waitingCount="11" stopTime="0.00" timeLoss="311.04" rerouteNo="0" devices="tripinfo_veh37 battery_veh37" vType="electric14" speedFactor="0.97" vaporized="">
        <battery depleted="0" actualBatteryCapacity="67690.94" totalEnergyConsumed="5202.36" totalEnergyRegenerated="3309.31"/>
    </tripinfo>
    <tripinfo id="veh17" depart="17.00" departLane="-444291996#0_0" departPos="4.84" departSpeed="0.00" departDelay="0.00" arrival="1004.00" arrivalLane="1178560322#0_0" arrivalPos="15.87" arrivalSpeed="12.20" duration="987.00" routeLength="9338.89" waitingTime="109.00" waitingCount="13" stopTime="0.00" timeLoss="256.80" rerouteNo="0" devices="tripinfo_veh17 battery_veh17" vType="electric15" speedFactor="0.88" vaporized="">
        <battery depleted="0" actualBatteryCapacity="76909.45" totalEnergyConsumed="5411.02" totalEnergyRegenerated="3649.47"/>
    </tripinfo>
    <tripinfo id="veh39" depart="39.00" departLane="212402327#2_0" departPos="4.84" departSpeed="0.00" departDelay="0.00" arrival="1094.00" arrivalLane="-E0_0" arrivalPos="12.05" arrivalSpeed="15.31" duration="1055.00" routeLength="9409.13" waitingTime="232.00" waitingCount="22" stopTime="0.00" timeLoss="466.47" rerouteNo="0" devices="tripinfo_veh39 battery_veh39" vType="electric15" speedFactor="1.10" vaporized="">
        <battery depleted="0" actualBatteryCapacity="77509.01" totalEnergyConsumed="6705.99" totalEnergyRegenerated="4641.99"/>
    </tripinfo>
    <tripinfo id="veh139" depart="139.00" departLane="-659352991#4_0" departPos="4.99" departSpeed="0.00" departDelay="0.00" arrival="1105.00" arrivalLane="-212402360_0" arrivalPos="116.91" arrivalSpeed="13.94" duration="966.00" routeLength="9192.82" waitingTime="163.00" waitingCount="12" stopTime="0.00" timeLoss="306.08" rerouteNo="0" devices="tripinfo_veh139 battery_veh139" vType="electric18" speedFactor="1.00" vaporized="">
        <battery depleted="0" actualBatteryCapacity="89570.38" totalEnergyConsumed="5728.52" totalEnergyRegenerated="4039.90"/>
    </tripinfo>
    <tripinfo id="veh114" depart="114.00" departLane="212682810_0" departPos="4.42" departSpeed="0.00" departDelay="0.00" arrival="1124.00" arrivalLane="-212691492_0" arrivalPos="75.46" arrivalSpeed="11.04" duration="1010.00" routeLength="8881.96" waitingTime="178.00" waitingCount="16" stopTime="0.00" timeLoss="381.32" rerouteNo="0" devices="tripinfo_veh114 battery_veh114" vType="electric7" speedFactor="1.01" vaporized="">
        <battery depleted="0" actualBatteryCapacity="45304.15" totalEnergyConsumed="4878.75" totalEnergyRegenerated="3013.90"/>
    </tripinfo>
    <tripinfo id="veh107" depart="107.00" departLane="453772978#1_0" departPos="5.10" departSpeed="0.00" departDelay="0.00" arrival="1126.00" arrivalLane="212691496#2_0" arrivalPos="26.47" arrivalSpeed="14.08" duration="1019.00" routeLength="9467.66" waitingTime="186.00" waitingCount="16" stopTime="0.00" timeLoss="341.04" rerouteNo="0" devices="tripinfo_veh107 battery_veh107" vType="electric20" speedFactor="1.01" vaporized="">
        <battery depleted="0" actualBatteryCapacity="90004.99" totalEnergyConsumed="6842.57" totalEnergyRegenerated="4905.55"/>
    </tripinfo>
    <tripinfo id="veh140" depart="143.00" departLane="-212691489#1_0" departPos="4.36" departSpeed="0.00" departDelay="3.00" arrival="1189.00" arrivalLane="-212402322#8_0" arrivalPos="31.36" arrivalSpeed="13.24" duration="1046.00" routeLength="9328.02" waitingTime="187.00" waitingCount="17" stopTime="0.00" timeLoss="361.58" rerouteNo="0" devices="tripinfo_veh140 battery_veh140" vType="electric6" speedFactor="0.95" vaporized="">
        <battery depleted="0" actualBatteryCapacity="42038.83" totalEnergyConsumed="4202.76" totalEnergyRegenerated="2513.59"/>
    </tripinfo>
    <tripinfo id="veh190" depart="190.00" departLane="446514658#2_0" departPos="4.68" departSpeed="0.00" departDelay="0.00" arrival="1201.00" arrivalLane="212709088#1_0" arrivalPos="33.69" arrivalSpeed="13.49" duration="1011.00" routeLength="6657.83" waitingTime="351.00" waitingCount="21" stopTime="0.00" timeLoss="505.47" rerouteNo="0" devices="tripinfo_veh190 battery_veh190" vType="electric12" speedFactor="0.97" vaporized="">
        <battery depleted="0" actualBatteryCapacity="56807.47" totalEnergyConsumed="3878.41" totalEnergyRegenerated="2556.88"/>
    </tripinfo>
    <tripinfo id="veh136" depart="136.00" departLane="-212402333#0_0" departPos="5.05" departSpeed="0.00" departDelay="0.00" arrival="1237.00" arrivalLane="-212402338#0_0" arrivalPos="12.46" arrivalSpeed="10.54" duration="1101.00" routeLength="9777.14" waitingTime="244.00" waitingCount="16" stopTime="0.00" timeLoss="431.33" rerouteNo="0" devices="tripinfo_veh136 battery_veh136" vType="electric19" speedFactor="1.01" vaporized="">
        <battery depleted="0" actualBatteryCapacity="88985.51" totalEnergyConsumed="7559.72" totalEnergyRegenerated="5186.23"/>
    </tripinfo>
    <tripinfo id="veh294" depart="294.00" departLane="-205687669#4_0" departPos="4.89" departSpeed="0.00" departDelay="0.00" arrival="1239.00" arrivalLane="-212691477_0" arrivalPos="31.98" arrivalSpeed="15.77" duration="945.00" routeLength="10475.71" waitingTime="66.00" waitingCount="17" stopTime="0.00" timeLoss="301.79" rerouteNo="0" devices="tripinfo_veh294 battery_veh294" vType="electric16" speedFactor="1.14" vaporized="">
        <battery depleted="0" actualBatteryCapacity="75733.28" totalEnergyConsumed="8161.41" totalEnergyRegenerated="5883.69"/>
    </tripinfo>
    <tripinfo id="veh194" depart="194.00" departLane="-212682820#2_0" departPos="4.31" departSpeed="0.00" departDelay="0.00" arrival="1242.00" arrivalLane="452398503#6_0" arrivalPos="31.43" arrivalSpeed="14.83" duration="1048.00" routeLength="8621.54" waitingTime="217.00" waitingCount="26" stopTime="0.00" timeLoss="472.01" rerouteNo="0" devices="tripinfo_veh194 battery_veh194" vType="electric5" speedFactor="1.07" vaporized="">
        <battery depleted="0" actualBatteryCapacity="30984.68" totalEnergyConsumed="4651.98" totalEnergyRegenerated="2822.66"/>
    </tripinfo>
    <tripinfo id="veh80" depart="80.00" departLane="-212410149#0_0" departPos="4.99" departSpeed="0.00" departDelay="0.00" arrival="1245.00" arrivalLane="460215284#8_0" arrivalPos="0.20" arrivalSpeed="29.15" duration="1165.00" routeLength="9767.78" waitingTime="314.00" waitingCount="25" stopTime="0.00" timeLoss="527.10" rerouteNo="0" devices="tripinfo_veh80 battery_veh80" vType="electric18" speedFactor="1.09" vaporized="">
        <battery depleted="0" actualBatteryCapacity="85119.61" totalEnergyConsumed="7043.42" totalEnergyRegenerated="5002.03"/>
    </tripinfo>
    <tripinfo id="veh33" depart="33.00" departLane="-713157114#0_0" departPos="5.10" departSpeed="0.00" departDelay="0.00" arrival="1257.00" arrivalLane="-212709066#2_0" arrivalPos="35.31" arrivalSpeed="13.96" duration="1224.00" routeLength="12386.06" waitingTime="119.00" waitingCount="20" stopTime="0.00" timeLoss="357.37" rerouteNo="0" devices="tripinfo_veh33 battery_veh33" vType="electric20" speedFactor="1.01" vaporized="">
        <battery depleted="0" actualBatteryCapacity="96132.96" totalEnergyConsumed="9244.97" totalEnergyRegenerated="6980.92"/>
    </tripinfo>
    <tripinfo id="veh78" depart="78.00" departLane="-212410134#4_0" departPos="4.78" departSpeed="0.00" departDelay="0.00" arrival="1262.00" arrivalLane="212402310#8_0" arrivalPos="137.35" arrivalSpeed="13.64" duration="1184.00" routeLength="10485.20" waitingTime="191.00" waitingCount="19" stopTime="0.00" timeLoss="392.83" rerouteNo="0" devices="tripinfo_veh78 battery_veh78" vType="electric14" speedFactor="0.98" vaporized="">
        <battery depleted="0" actualBatteryCapacity="71148.85" totalEnergyConsumed="5835.68" totalEnergyRegenerated="3841.54"/>
    </tripinfo>
    <tripinfo id="veh52" depart="52.00" departLane="-212402334_0" departPos="4.52" departSpeed="0.00" departDelay="0.00" arrival="1269.00" arrivalLane="-212682839#1_0" arrivalPos="27.21" arrivalSpeed="16.24" duration="1217.00" routeLength="10531.34" waitingTime="317.00" waitingCount="19" stopTime="0.00" timeLoss="575.35" rerouteNo="0" devices="tripinfo_veh52 battery_veh52" vType="electric9" speedFactor="1.17" vaporized="">
        <battery depleted="0" actualBatteryCapacity="50242.29" totalEnergyConsumed="6763.88" totalEnergyRegenerated="4201.17"/>
    </tripinfo>
    <tripinfo id="veh111" depart="111.00" departLane="-1181466356_0" departPos="4.15" departSpeed="0.00" departDelay="0.00" arrival="1280.00" arrivalLane="137614083#8_0" arrivalPos="61.30" arrivalSpeed="12.89" duration="1169.00" routeLength="10989.17" waitingTime="165.00" waitingCount="14" stopTime="0.00" timeLoss="349.42" rerouteNo="0" devices="tripinfo_veh111 battery_veh111" vType="electric2" speedFactor="0.93" vaporized="">
        <battery depleted="0" actualBatteryCapacity="18892.74" totalEnergyConsumed="3865.60" totalEnergyRegenerated="2212.34"/>
    </tripinfo>
    <tripinfo id="veh122" depart="122.00" departLane="-1178404909#1_0" departPos="5.10" departSpeed="0.00" departDelay="0.00" arrival="1301.00" arrivalLane="-212682803#1_0" arrivalPos="49.35" arrivalSpeed="15.32" duration="1179.00" routeLength="10407.98" waitingTime="269.00" waitingCount="21" stopTime="0.00" timeLoss="522.41" rerouteNo="0" devices="tripinfo_veh122 battery_veh122" vType="electric20" speedFactor="1.10" vaporized="">
        <battery depleted="0" actualBatteryCapacity="95387.97" totalEnergyConsumed="8829.11" totalEnergyRegenerated="6654.08"/>
    </tripinfo>
    <tripinfo id="veh180" depart="180.00" departLane="212682805#0_0" departPos="4.99" departSpeed="0.00" departDelay="0.00" arrival="1302.00" arrivalLane="212682785#6_0" arrivalPos="0.20" arrivalSpeed="13.77" duration="1122.00" routeLength="9390.95" waitingTime="342.00" waitingCount="21" stopTime="0.00" timeLoss="535.42" rerouteNo="0" devices="tripinfo_veh180 battery_veh180" vType="electric18" speedFactor="1.06" vaporized="">
        <battery depleted="0" actualBatteryCapacity="84881.14" totalEnergyConsumed="7103.74" totalEnergyRegenerated="5179.87"/>
    </tripinfo>
    <tripinfo id="veh3" depart="3.00" departLane="444291984#6_0" departPos="4.63" departSpeed="0.00" departDelay="0.00" arrival="1304.00" arrivalLane="-212402395#0_0" arrivalPos="21.21" arrivalSpeed="14.03" duration="1301.00" routeLength="11457.48" waitingTime="304.00" waitingCount="18" stopTime="0.00" timeLoss="500.16" rerouteNo="0" devices="tripinfo_veh3 battery_veh3" vType="electric11" speedFactor="1.01" vaporized="">
        <battery depleted="0" actualBatteryCapacity="54993.67" totalEnergyConsumed="6353.44" totalEnergyRegenerated="3949.11"/>
    </tripinfo>
    <tripinfo id="veh15" depart="15.00" departLane="212402307#0_0" departPos="4.63" departSpeed="0.00" departDelay="0.00" arrival="1309.00" arrivalLane="-212691496#0_0" arrivalPos="23.91" arrivalSpeed="13.41" duration="1294.00" routeLength="11128.65" waitingTime="243.00" waitingCount="19" stopTime="0.00" timeLoss="483.40" rerouteNo="0" devices="tripinfo_veh15 battery_veh15" vType="electric11" speedFactor="0.99" vaporized="">
        <battery depleted="0" actualBatteryCapacity="52095.38" totalEnergyConsumed="6247.59" totalEnergyRegenerated="4003.97"/>
    </tripinfo>
    <tripinfo id="veh82" depart="82.00" departLane="-212402403#3_0" departPos="4.89" departSpeed="0.00" departDelay="0.00" arrival="1311.00" arrivalLane="138074610#6_0" arrivalPos="43.94" arrivalSpeed="13.86" duration="1229.00" routeLength="11365.98" waitingTime="239.00" waitingCount="24" stopTime="0.00" timeLoss="464.13" rerouteNo="0" devices="tripinfo_veh82 battery_veh82" vType="electric16" speedFactor="1.00" vaporized="">
        <battery depleted="0" actualBatteryCapacity="75373.56" totalEnergyConsumed="7380.11" totalEnergyRegenerated="5075.66"/>
    </tripinfo>
    <tripinfo id="veh118" depart="118.00" departLane="-212709066#1_0" departPos="4.63" departSpeed="0.00" departDelay="0.00" arrival="1315.00" arrivalLane="460211162#4_0" arrivalPos="8.16" arrivalSpeed="10.72" duration="1197.00" routeLength="11748.31" waitingTime="214.00" waitingCount="15" stopTime="0.00" timeLoss="432.33" rerouteNo="0" devices="tripinfo_veh118 battery_veh118" vType="electric11" speedFactor="1.00" vaporized="">
        <battery depleted="0" actualBatteryCapacity="51902.45" totalEnergyConsumed="6982.86" totalEnergyRegenerated="4323.30"/>
    </tripinfo>
    <tripinfo id="veh129" depart="129.00" departLane="-212682824#0_0" departPos="5.10" departSpeed="0.00" departDelay="0.00" arrival="1316.00" arrivalLane="-212701284#0_0" arrivalPos="72.18" arrivalSpeed="15.53" duration="1187.00" routeLength="12095.23" waitingTime="175.00" waitingCount="20" stopTime="0.00" timeLoss="433.75" rerouteNo="0" devices="tripinfo_veh129 battery_veh129" vType="electric20" speedFactor="1.12" vaporized="">
        <battery depleted="0" actualBatteryCapacity="95000.10" totalEnergyConsumed="9913.74" totalEnergyRegenerated="7393.85"/>
    </tripinfo>
    <tripinfo id="veh110" depart="112.00" departLane="-212402347#5_0" departPos="4.42" departSpeed="0.00" departDelay="2.00" arrival="1322.00" arrivalLane="446514657#1_0" arrivalPos="22.97" arrivalSpeed="13.33" duration="1210.00" routeLength="12105.67" waitingTime="179.00" waitingCount="11" stopTime="0.00" timeLoss="363.19" rerouteNo="0" devices="tripinfo_veh110 battery_veh110" vType="electric7" speedFactor="0.96" vaporized="">
        <battery depleted="0" actualBatteryCapacity="42197.05" totalEnergyConsumed="5986.58" totalEnergyRegenerated="3669.62"/>
    </tripinfo>
    <tripinfo id="veh120" depart="120.00" departLane="-212682824#0_0" departPos="4.57" departSpeed="0.00" departDelay="0.00" arrival="1337.00" arrivalLane="212691496#3_0" arrivalPos="0.10" arrivalSpeed="11.42" duration="1217.00" routeLength="11132.96" waitingTime="249.00" waitingCount="15" stopTime="0.00" timeLoss="484.44" rerouteNo="0" devices="tripinfo_veh120 battery_veh120" vType="electric10" speedFactor="1.07" vaporized="">
        <battery depleted="0" actualBatteryCapacity="53280.62" totalEnergyConsumed="6565.26" totalEnergyRegenerated="4226.87"/>
    </tripinfo>
    <tripinfo id="veh150" depart="150.00" departLane="-212682825#2_0" departPos="4.57" departSpeed="0.00" departDelay="0.00" arrival="1337.00" arrivalLane="460214435#2_0" arrivalPos="62.75" arrivalSpeed="28.89" duration="1187.00" routeLength="9052.84" waitingTime="364.00" waitingCount="22" stopTime="0.00" timeLoss="577.54" rerouteNo="0" devices="tripinfo_veh150 battery_veh150" vType="electric10" speedFactor="1.04" vaporized="">
        <battery depleted="0" actualBatteryCapacity="57359.49" totalEnergyConsumed="5413.16" totalEnergyRegenerated="3424.65"/>
    </tripinfo>
    <tripinfo id="veh53" depart="53.00" departLane="-205687668#1_0" departPos="4.94" departSpeed="0.00" departDelay="0.00" arrival="1340.00" arrivalLane="-E7_0" arrivalPos="60.40" arrivalSpeed="14.12" duration="1287.00" routeLength="11164.27" waitingTime="293.00" waitingCount="17" stopTime="0.00" timeLoss="522.66" rerouteNo="0" devices="tripinfo_veh53 battery_veh53" vType="electric17" speedFactor="1.02" vaporized="">
        <battery depleted="0" actualBatteryCapacity="81946.19" totalEnergyConsumed="7824.18" totalEnergyRegenerated="5497.38"/>
    </tripinfo>
    <tripinfo id="veh232" depart="234.00" departLane="-138074615#5_0" departPos="4.63" departSpeed="0.00" departDelay="2.00" arrival="1350.00" arrivalLane="457106272#15_0" arrivalPos="44.69" arrivalSpeed="16.92" duration="1116.00" routeLength="10471.86" waitingTime="239.00" waitingCount="20" stopTime="0.00" timeLoss="462.65" rerouteNo="0" devices="tripinfo_veh232 battery_veh232" vType="electric11" speedFactor="1.14" vaporized="">
        <battery depleted="0" actualBatteryCapacity="59547.51" totalEnergyConsumed="6704.74" totalEnergyRegenerated="4139.25"/>
    </tripinfo>
    <tripinfo id="veh170" depart="170.00" departLane="-212706370#0_0" departPos="4.84" departSpeed="0.00" departDelay="0.00" arrival="1356.00" arrivalLane="-212691476_0" arrivalPos="72.53" arrivalSpeed="13.06" duration="1186.00" routeLength="11826.64" waitingTime="156.00" waitingCount="20" stopTime="0.00" timeLoss="335.24" rerouteNo="0" devices="tripinfo_veh170 battery_veh170" vType="electric15" speedFactor="0.94" vaporized="">
        <battery depleted="0" actualBatteryCapacity="73960.03" totalEnergyConsumed="6585.68" totalEnergyRegenerated="4367.71"/>
    </tripinfo>
    <tripinfo id="veh1" depart="1.00" departLane="452398500#1_0" departPos="4.99" departSpeed="0.00" departDelay="0.00" arrival="1359.00" arrivalLane="-212709066#0_0" arrivalPos="57.92" arrivalSpeed="13.62" duration="1358.00" routeLength="14036.45" waitingTime="221.00" waitingCount="21" stopTime="0.00" timeLoss="458.90" rerouteNo="0" devices="tripinfo_veh1 battery_veh1" vType="electric18" speedFactor="1.06" vaporized="">
        <battery depleted="0" actualBatteryCapacity="83065.88" totalEnergyConsumed="9324.12" totalEnergyRegenerated="6443.00"/>
    </tripinfo>
    <tripinfo id="veh164" depart="164.00" departLane="212402356#2_0" departPos="4.94" departSpeed="0.00" departDelay="0.00" arrival="1361.00" arrivalLane="205687669#2_0" arrivalPos="26.16" arrivalSpeed="15.39" duration="1197.00" routeLength="9373.75" waitingTime="397.00" waitingCount="22" stopTime="0.00" timeLoss="604.43" rerouteNo="0" devices="tripinfo_veh164 battery_veh164" vType="electric17" speedFactor="1.13" vaporized="">
        <battery depleted="0" actualBatteryCapacity="79045.90" totalEnergyConsumed="7545.91" totalEnergyRegenerated="5323.81"/>
    </tripinfo>
    <tripinfo id="veh31" depart="31.00" departLane="-212691471#1_0" departPos="4.78" departSpeed="0.00" departDelay="0.00" arrival="1372.00" arrivalLane="-212706370#0_0" arrivalPos="23.36" arrivalSpeed="16.37" duration="1341.00" routeLength="11841.04" waitingTime="393.00" waitingCount="28" stopTime="0.00" timeLoss="647.87" rerouteNo="0" devices="tripinfo_veh31 battery_veh31" vType="electric14" speedFactor="1.18" vaporized="">
        <battery depleted="0" actualBatteryCapacity="68968.97" totalEnergyConsumed="8415.16" totalEnergyRegenerated="5715.14"/>
    </tripinfo>
    <tripinfo id="veh117" depart="117.00" departLane="212402347#0_0" departPos="4.42" departSpeed="0.00" departDelay="0.00" arrival="1373.00" arrivalLane="-457106272#0_0" arrivalPos="91.76" arrivalSpeed="25.10" duration="1256.00" routeLength="12139.39" waitingTime="220.00" waitingCount="26" stopTime="0.00" timeLoss="540.29" rerouteNo="0" devices="tripinfo_veh117 battery_veh117" vType="electric7" speedFactor="1.18" vaporized="">
        <battery depleted="0" actualBatteryCapacity="36244.60" totalEnergyConsumed="7676.29" totalEnergyRegenerated="4612.90"/>
    </tripinfo>
    <tripinfo id="veh231" depart="231.00" departLane="212709090#1_0" departPos="5.10" departSpeed="0.00" departDelay="0.00" arrival="1377.00" arrivalLane="-212701277#1_0" arrivalPos="60.36" arrivalSpeed="14.45" duration="1146.00" routeLength="10791.38" waitingTime="226.00" waitingCount="20" stopTime="0.00" timeLoss="434.74" rerouteNo="0" devices="tripinfo_veh231 battery_veh231" vType="electric20" speedFactor="1.04" vaporized="">
        <battery depleted="0" actualBatteryCapacity="87756.58" totalEnergyConsumed="8203.90" totalEnergyRegenerated="5765.48"/>
    </tripinfo>
    <tripinfo id="veh14" depart="14.00" departLane="-212410133#4_0" departPos="5.05" departSpeed="0.00" departDelay="0.00" arrival="1383.00" arrivalLane="212402392#1_0" arrivalPos="48.57" arrivalSpeed="15.60" duration="1369.00" routeLength="12483.42" waitingTime="334.00" waitingCount="25" stopTime="0.00" timeLoss="581.43" rerouteNo="0" devices="tripinfo_veh14 battery_veh14" vType="electric19" speedFactor="1.12" vaporized="">
        <battery depleted="0" actualBatteryCapacity="91901.06" totalEnergyConsumed="8379.47" totalEnergyRegenerated="5857.54"/>
    </tripinfo>
    <tripinfo id="veh2" depart="2.00" departLane="212701274#2_0" departPos="4.89" departSpeed="0.00" departDelay="0.00" arrival="1384.00" arrivalLane="212682816#1_0" arrivalPos="73.22" arrivalSpeed="13.03" duration="1382.00" routeLength="10703.67" waitingTime="342.00" waitingCount="31" stopTime="0.00" timeLoss="550.27" rerouteNo="0" devices="tripinfo_veh2 battery_veh2" vType="electric16" speedFactor="0.94" vaporized="">
        <battery depleted="0" actualBatteryCapacity="72971.60" totalEnergyConsumed="6223.32" totalEnergyRegenerated="4289.92"/>
    </tripinfo>
    <tripinfo id="veh199" depart="199.00" departLane="-453772971#0_0" departPos="4.57" departSpeed="0.00" departDelay="0.00" arrival="1396.00" arrivalLane="-212402367#1_0" arrivalPos="6.99" arrivalSpeed="7.10" duration="1197.00" routeLength="11610.07" waitingTime="139.00" waitingCount="24" stopTime="0.00" timeLoss="393.77" rerouteNo="0" devices="tripinfo_veh199 battery_veh199" vType="electric10" speedFactor="1.06" vaporized="">
        <battery depleted="0" actualBatteryCapacity="50487.50" totalEnergyConsumed="7177.21" totalEnergyRegenerated="4638.71"/>
    </tripinfo>
    <tripinfo id="veh19" depart="19.00" departLane="-212410133#4_0" departPos="5.10" departSpeed="0.00" departDelay="0.00" arrival="1397.00" arrivalLane="-1178560324_0" arrivalPos="16.12" arrivalSpeed="13.00" duration="1378.00" routeLength="11634.24" waitingTime="313.00" waitingCount="25" stopTime="0.00" timeLoss="488.48" rerouteNo="0" devices="tripinfo_veh19 battery_veh19" vType="electric20" speedFactor="0.94" vaporized="">
        <battery depleted="0" actualBatteryCapacity="95663.50" totalEnergyConsumed="6927.50" totalEnergyRegenerated="4823.00"/>
    </tripinfo>
    <tripinfo id="veh148" depart="148.00" departLane="-212402369#1_0" departPos="4.84" departSpeed="0.00" departDelay="0.00" arrival="1411.00" arrivalLane="-212682803#4_0" arrivalPos="112.87" arrivalSpeed="13.92" duration="1263.00" routeLength="10733.63" waitingTime="294.00" waitingCount="24" stopTime="0.00" timeLoss="499.99" rerouteNo="0" devices="tripinfo_veh148 battery_veh148" vType="electric15" speedFactor="1.00" vaporized="">
        <battery depleted="0" actualBatteryCapacity="73601.87" totalEnergyConsumed="6770.19" totalEnergyRegenerated="4600.06"/>
    </tripinfo>
    <tripinfo id="veh83" depart="83.00" departLane="212682820#1_0" departPos="4.52" departSpeed="0.00" departDelay="0.00" arrival="1412.00" arrivalLane="-212706370#1_0" arrivalPos="116.50" arrivalSpeed="14.12" duration="1329.00" routeLength="11403.39" waitingTime="257.00" waitingCount="28" stopTime="0.00" timeLoss="527.07" rerouteNo="0" devices="tripinfo_veh83 battery_veh83" vType="electric9" speedFactor="1.02" vaporized="">
        <battery depleted="0" actualBatteryCapacity="44507.18" totalEnergyConsumed="6620.85" totalEnergyRegenerated="4147.03"/>
    </tripinfo>
    <tripinfo id="veh68" depart="68.00" departLane="-212402362#0_0" departPos="4.21" departSpeed="0.00" departDelay="0.00" arrival="1417.00" arrivalLane="-138312727#0_0" arrivalPos="191.08" arrivalSpeed="12.70" duration="1349.00" routeLength="11025.70" waitingTime="246.00" waitingCount="18" stopTime="0.00" timeLoss="453.49" rerouteNo="0" devices="tripinfo_veh68 battery_veh68" vType="electric3" speedFactor="0.91" vaporized="">
        <battery depleted="0" actualBatteryCapacity="26769.30" totalEnergyConsumed="4188.46" totalEnergyRegenerated="2381.76"/>
    </tripinfo>
    <tripinfo id="veh142" depart="142.00" departLane="-212709054#0_0" departPos="4.31" departSpeed="0.00" departDelay="0.00" arrival="1418.00" arrivalLane="212701284#1_0" arrivalPos="80.09" arrivalSpeed="16.17" duration="1276.00" routeLength="12831.24" waitingTime="173.00" waitingCount="21" stopTime="0.00" timeLoss="507.61" rerouteNo="0" devices="tripinfo_veh142 battery_veh142" vType="electric5" speedFactor="1.16" vaporized="">
        <battery depleted="0" actualBatteryCapacity="36030.38" totalEnergyConsumed="6948.28" totalEnergyRegenerated="4227.66"/>
    </tripinfo>
    <tripinfo id="veh28" depart="28.00" departLane="-659371085#0_0" departPos="4.21" departSpeed="0.00" departDelay="0.00" arrival="1422.00" arrivalLane="444293148#0_0" arrivalPos="19.08" arrivalSpeed="13.02" duration="1394.00" routeLength="12081.50" waitingTime="248.00" waitingCount="22" stopTime="0.00" timeLoss="516.55" rerouteNo="0" devices="tripinfo_veh28 battery_veh28" vType="electric4" speedFactor="0.95" vaporized="">
        <battery depleted="0" actualBatteryCapacity="26653.14" totalEnergyConsumed="5271.40" totalEnergyRegenerated="3174.54"/>
    </tripinfo>
    <tripinfo id="veh29" depart="29.00" departLane="-452398501_0" departPos="4.78" departSpeed="0.00" departDelay="0.00" arrival="1425.00" arrivalLane="E36_0" arrivalPos="20.57" arrivalSpeed="13.86" duration="1396.00" routeLength="13008.12" waitingTime="275.00" waitingCount="29" stopTime="0.00" timeLoss="559.66" rerouteNo="0" devices="tripinfo_veh29 battery_veh29" vType="electric14" speedFactor="1.13" vaporized="">
        <battery depleted="0" actualBatteryCapacity="64867.58" totalEnergyConsumed="8329.93" totalEnergyRegenerated="5512.51"/>
    </tripinfo>
    <tripinfo id="veh13" depart="13.00" departLane="-212691505#0_0" departPos="4.52" departSpeed="0.00" departDelay="0.00" arrival="1426.00" arrivalLane="-212402400#1_0" arrivalPos="36.56" arrivalSpeed="14.54" duration="1413.00" routeLength="13873.24" waitingTime="257.00" waitingCount="13" stopTime="0.00" timeLoss="490.02" rerouteNo="0" devices="tripinfo_veh13 battery_veh13" vType="electric9" speedFactor="1.05" vaporized="">
        <battery depleted="0" actualBatteryCapacity="47579.49" totalEnergyConsumed="7581.29" totalEnergyRegenerated="4648.77"/>
    </tripinfo>
    <tripinfo id="veh268" depart="271.00" departLane="212402396#3_0" departPos="4.21" departSpeed="0.00" departDelay="3.00" arrival="1426.00" arrivalLane="212701274#1_0" arrivalPos="13.18" arrivalSpeed="11.77" duration="1155.00" routeLength="9315.83" waitingTime="205.00" waitingCount="19" stopTime="0.00" timeLoss="405.27" rerouteNo="0" devices="tripinfo_veh268 battery_veh268" vType="electric3" speedFactor="0.92" vaporized="">
        <battery depleted="0" actualBatteryCapacity="22964.87" totalEnergyConsumed="3915.91" totalEnergyRegenerated="2247.78"/>
    </tripinfo>
    <tripinfo id="veh279" depart="279.00" departLane="-212682793_0" departPos="4.21" departSpeed="0.00" departDelay="0.00" arrival="1426.00" arrivalLane="-212402396#4_0" arrivalPos="36.94" arrivalSpeed="13.75" duration="1147.00" routeLength="10392.80" waitingTime="162.00" waitingCount="15" stopTime="0.00" timeLoss="375.15" rerouteNo="0" devices="tripinfo_veh279 battery_veh279" vType="electric3" speedFactor="0.99" vaporized="">